# vtk DataFile Version 1.0
Unstructured Grid Example
ASCII

DATASET UNSTRUCTURED_GRID
POINTS 101413 float
2 229 0
11 229 0
18 229 0
25 229 0
29 229 0
39 229 0
51 229 0
56 229 0
60 229 0
71 229 0
74 229 0
89 229 0
95 229 0
98 229 0
104 229 0
107 229 0
119 229 0
130 229 0
133 229 0
146 229 0
154 229 0
164 229 0
169 229 0
173 229 0
187 229 0
190 229 0
206 229 0
211 229 0
215 229 0
234 229 0
239 229 0
245 229 0
258 229 0
261 229 0
274 229 0
292 229 0
296 229 0
299 229 0
305 229 0
308 229 0
313 229 0
330 229 0
350 229 0
356 229 0
372 229 0
378 229 0
33 228 0
48 228 0
77 228 0
123 228 0
136 228 0
159 228 0
201 228 0
220 228 0
223 228 0
255 228 0
267 228 0
270 228 0
278 228 0
316 228 0
341 228 0
353 228 0
13 227 0
22 227 0
27 227 0
37 227 0
54 227 0
58 227 0
82 227 0
87 227 0
100 227 0
110 227 0
116 227 0
140 227 0
150 227 0
156 227 0
162 227 0
167 227 0
179 227 0
182 227 0
195 227 0
204 227 0
226 227 0
236 227 0
241 227 0
247 227 0
264 227 0
282 227 0
287 227 0
294 227 0
311 227 0
319 227 0
322 227 0
325 227 0
332 227 0
335 227 0
345 227 0
348 227 0
358 227 0
362 227 0
370 227 0
376 227 0
6 226 0
18 226 0
31 226 0
42 226 0
64 226 0
70 226 0
73 226 0
91 226 0
97 226 0
107 226 0
126 226 0
131 226 0
146 226 0
153 226 0
176 226 0
187 226 0
191 226 0
207 226 0
212 226 0
251 226 0
257 226 0
261 226 0
272 226 0
276 226 0
301 226 0
305 226 0
314 226 0
351 226 0
355 226 0
366 226 0
11 225 0
15 225 0
24 225 0
46 225 0
49 225 0
61 225 0
67 225 0
77 225 0
85 225 0
94 225 0
102 225 0
122 225 0
135 225 0
138 225 0
143 225 0
172 225 0
184 225 0
197 225 0
200 225 0
218 225 0
231 225 0
254 225 0
268 225 0
284 225 0
309 225 0
327 225 0
338 225 0
342 225 0
373 225 0
2 224 0
34 224 0
37 224 0
40 224 0
82 224 0
110 224 0
114 224 0
119 224 0
148 224 0
157 224 0
162 224 0
165 224 0
168 224 0
178 224 0
189 224 0
194 224 0
203 224 0
214 224 0
222 224 0
236 224 0
241 224 0
245 224 0
264 224 0
281 224 0
288 224 0
291 224 0
297 224 0
303 224 0
330 224 0
334 224 0
346 224 0
349 224 0
362 224 0
368 224 0
378 224 0
6 223 0
17 223 0
20 223 0
43 223 0
51 223 0
55 223 0
69 223 0
72 223 0
87 223 0
97 223 0
104 223 0
107 223 0
126 223 0
140 223 0
153 223 0
174 223 0
229 223 0
233 223 0
250 223 0
270 223 0
273 223 0
277 223 0
294 223 0
312 223 0
318 223 0
322 223 0
325 223 0
352 223 0
356 223 0
371 223 0
24 222 0
27 222 0
47 222 0
60 222 0
90 222 0
130 222 0
134 222 0
143 222 0
181 222 0
186 222 0
197 222 0
208 222 0
211 222 0
226 222 0
259 222 0
285 222 0
300 222 0
306 222 0
315 222 0
342 222 0
359 222 0
375 222 0
0 221 0
11 221 0
31 221 0
36 221 0
64 221 0
76 221 0
93 221 0
101 221 0
117 221 0
122 221 0
150 221 0
163 221 0
170 221 0
193 221 0
201 221 0
205 221 0
219 221 0
254 221 0
267 221 0
282 221 0
309 221 0
328 221 0
332 221 0
339 221 0
363 221 0
367 221 0
4 220 0
18 220 0
41 220 0
67 220 0
73 220 0
79 220 0
85 220 0
111 220 0
154 220 0
173 220 0
234 220 0
238 220 0
244 220 0
251 220 0
303 220 0
321 220 0
336 220 0
345 220 0
353 220 0
371 220 0
7 219 0
14 219 0
22 219 0
54 219 0
106 219 0
126 219 0
132 219 0
136 219 0
147 219 0
160 219 0
167 219 0
179 219 0
216 219 0
224 219 0
230 219 0
264 219 0
271 219 0
288 219 0
294 219 0
298 219 0
313 219 0
317 219 0
325 219 0
349 219 0
375 219 0
378 219 0
45 218 0
50 218 0
70 218 0
82 218 0
90 218 0
97 218 0
115 218 0
140 218 0
191 218 0
196 218 0
241 218 0
247 218 0
257 218 0
277 218 0
284 218 0
307 218 0
341 218 0
356 218 0
361 218 0
3 217 0
11 217 0
26 217 0
32 217 0
59 217 0
65 217 0
122 217 0
170 217 0
176 217 0
207 217 0
267 217 0
301 217 0
331 217 0
369 217 0
20 216 0
42 216 0
75 216 0
93 216 0
101 216 0
111 216 0
129 216 0
149 216 0
153 216 0
162 216 0
183 216 0
202 216 0
211 216 0
221 216 0
235 216 0
244 216 0
252 216 0
310 216 0
344 216 0
36 215 0
54 215 0
135 215 0
145 215 0
187 215 0
216 215 0
226 215 0
262 215 0
271 215 0
280 215 0
315 215 0
322 215 0
326 215 0
364 215 0
373 215 0
377 215 0
7 214 0
16 214 0
29 214 0
115 214 0
140 214 0
157 214 0
173 214 0
179 214 0
198 214 0
256 214 0
284 214 0
289 214 0
336 214 0
360 214 0
0 213 0
4 213 0
11 213 0
48 213 0
61 213 0
66 213 0
80 213 0
87 213 0
124 213 0
169 213 0
206 213 0
231 213 0
239 213 0
249 213 0
294 213 0
303 213 0
307 213 0
330 213 0
352 213 0
356 213 0
370 213 0
375 213 0
20 212 0
24 212 0
33 212 0
57 212 0
74 212 0
95 212 0
107 212 0
131 212 0
164 212 0
213 212 0
219 212 0
235 212 0
244 212 0
277 212 0
311 212 0
348 212 0
37 211 0
44 211 0
52 211 0
70 211 0
143 211 0
176 211 0
186 211 0
192 211 0
266 211 0
272 211 0
281 211 0
317 211 0
325 211 0
363 211 0
0 210 0
8 210 0
84 210 0
112 210 0
118 210 0
127 210 0
152 210 0
181 210 0
252 210 0
298 210 0
339 210 0
367 210 0
374 210 0
14 209 0
91 209 0
99 209 0
137 209 0
147 209 0
203 209 0
209 209 0
224 209 0
257 209 0
291 209 0
321 209 0
344 209 0
378 209 0
4 208 0
18 208 0
29 208 0
59 208 0
65 208 0
104 208 0
122 208 0
160 208 0
168 208 0
230 208 0
304 208 0
329 208 0
370 208 0
0 207 0
40 207 0
79 207 0
131 207 0
238 207 0
263 207 0
284 207 0
311 207 0
362 207 0
375 207 0
8 206 0
24 206 0
35 206 0
72 206 0
115 206 0
178 206 0
198 206 0
244 206 0
277 206 0
316 206 0
334 206 0
357 206 0
3 205 0
15 205 0
47 205 0
84 205 0
151 205 0
173 205 0
214 205 0
219 205 0
252 205 0
325 205 0
340 205 0
352 205 0
366 205 0
377 205 0
53 204 0
98 204 0
125 204 0
138 204 0
145 204 0
188 204 0
259 204 0
294 204 0
300 204 0
307 204 0
371 204 0
0 203 0
63 203 0
76 203 0
90 203 0
105 203 0
111 203 0
164 203 0
225 203 0
270 203 0
320 203 0
347 203 0
362 203 0
374 203 0
11 202 0
18 202 0
42 202 0
58 202 0
119 202 0
159 202 0
194 202 0
206 202 0
232 202 0
240 202 0
264 202 0
312 202 0
377 202 0
5 201 0
23 201 0
132 201 0
282 201 0
289 201 0
366 201 0
372 201 0
1 200 0
32 200 0
71 200 0
182 200 0
200 200 0
211 200 0
246 200 0
328 200 0
336 200 0
354 200 0
359 200 0
375 200 0
15 199 0
50 199 0
152 199 0
169 199 0
176 199 0
369 199 0
3 198 0
7 198 0
86 198 0
101 198 0
126 198 0
138 198 0
189 198 0
258 198 0
276 198 0
298 198 0
304 198 0
373 198 0
377 198 0
92 197 0
114 197 0
219 197 0
226 197 0
362 197 0
366 197 0
11 196 0
19 196 0
39 196 0
59 196 0
120 196 0
146 196 0
237 196 0
265 196 0
310 196 0
320 196 0
345 196 0
375 196 0
1 195 0
28 195 0
65 195 0
81 195 0
194 195 0
207 195 0
252 195 0
289 195 0
352 195 0
4 194 0
7 194 0
72 194 0
107 194 0
161 194 0
201 194 0
246 194 0
336 194 0
372 194 0
378 194 0
48 193 0
133 193 0
168 193 0
175 193 0
182 193 0
327 193 0
360 193 0
368 193 0
375 193 0
16 192 0
33 192 0
230 192 0
364 192 0
55 191 0
98 191 0
124 191 0
189 191 0
215 191 0
260 191 0
271 191 0
283 191 0
378 191 0
2 190 0
7 190 0
11 190 0
26 190 0
77 190 0
302 190 0
375 190 0
19 189 0
41 189 0
62 189 0
87 189 0
238 189 0
346 189 0
352 189 0
371 189 0
0 188 0
145 188 0
155 188 0
277 188 0
296 188 0
313 188 0
319 188 0
332 188 0
367 188 0
6 187 0
14 187 0
224 187 0
362 187 0
376 187 0
2 186 0
107 186 0
116 186 0
137 186 0
174 186 0
197 186 0
245 186 0
254 186 0
265 186 0
288 186 0
307 186 0
326 186 0
339 186 0
357 186 0
373 186 0
35 185 0
73 185 0
127 185 0
181 185 0
369 185 0
4 184 0
8 184 0
52 184 0
91 184 0
98 184 0
217 184 0
272 184 0
350 184 0
376 184 0
18 183 0
23 183 0
59 183 0
165 183 0
234 183 0
364 183 0
373 183 0
2 182 0
12 182 0
29 182 0
79 182 0
188 182 0
205 182 0
302 182 0
316 182 0
344 182 0
378 182 0
5 181 0
280 181 0
330 181 0
356 181 0
375 181 0
0 180 0
8 180 0
41 180 0
121 180 0
133 180 0
153 180 0
241 180 0
286 180 0
310 180 0
369 180 0
20 179 0
69 179 0
88 179 0
106 179 0
227 179 0
295 179 0
322 179 0
337 179 0
373 179 0
378 179 0
14 178 0
63 178 0
96 178 0
114 178 0
141 178 0
269 178 0
1 177 0
4 177 0
9 177 0
49 177 0
57 177 0
174 177 0
198 177 0
261 177 0
275 177 0
347 177 0
360 177 0
366 177 0
370 177 0
101 176 0
217 176 0
299 176 0
306 176 0
332 176 0
374 176 0
378 176 0
23 175 0
34 175 0
84 175 0
126 175 0
165 175 0
253 175 0
282 175 0
288 175 0
1 174 0
16 174 0
73 174 0
235 174 0
321 174 0
353 174 0
368 174 0
5 173 0
67 173 0
91 173 0
208 173 0
311 173 0
316 173 0
327 173 0
364 173 0
378 173 0
9 172 0
43 172 0
78 172 0
104 172 0
224 172 0
278 172 0
304 172 0
372 172 0
13 171 0
27 171 0
119 171 0
146 171 0
157 171 0
186 171 0
244 171 0
272 171 0
332 171 0
376 171 0
0 170 0
21 170 0
37 170 0
58 170 0
63 170 0
83 170 0
97 170 0
111 170 0
134 170 0
258 170 0
266 170 0
285 170 0
290 170 0
294 170 0
299 170 0
323 170 0
342 170 0
361 170 0
368 170 0
4 169 0
7 169 0
52 169 0
314 169 0
319 169 0
336 169 0
354 169 0
373 169 0
70 168 0
75 168 0
89 168 0
102 168 0
107 168 0
115 168 0
127 168 0
140 168 0
169 168 0
216 168 0
305 168 0
327 168 0
347 168 0
93 167 0
194 167 0
233 167 0
251 167 0
278 167 0
370 167 0
376 167 0
3 166 0
6 166 0
14 166 0
26 166 0
42 166 0
98 166 0
177 166 0
274 166 0
288 166 0
296 166 0
301 166 0
308 166 0
363 166 0
10 165 0
21 165 0
63 165 0
82 165 0
111 165 0
203 165 0
260 165 0
267 165 0
312 165 0
316 165 0
322 165 0
333 165 0
0 164 0
48 164 0
57 164 0
67 164 0
73 164 0
89 164 0
104 164 0
117 164 0
146 164 0
240 164 0
293 164 0
328 164 0
343 164 0
351 164 0
373 164 0
376 164 0
32 163 0
123 163 0
137 163 0
162 163 0
227 163 0
281 163 0
285 163 0
299 163 0
305 163 0
357 163 0
8 162 0
13 162 0
17 162 0
53 162 0
77 162 0
85 162 0
97 162 0
108 162 0
247 162 0
308 162 0
318 162 0
339 162 0
362 162 0
367 162 0
378 162 0
4 161 0
27 161 0
61 161 0
81 161 0
113 161 0
130 161 0
270 161 0
274 161 0
278 161 0
295 161 0
302 161 0
323 161 0
332 161 0
347 161 0
371 161 0
21 160 0
41 160 0
70 160 0
94 160 0
101 160 0
153 160 0
185 160 0
261 160 0
290 160 0
315 160 0
375 160 0
0 159 0
47 159 0
66 159 0
75 159 0
89 159 0
105 159 0
117 159 0
121 159 0
125 159 0
168 159 0
253 159 0
306 159 0
311 159 0
328 159 0
335 159 0
342 159 0
7 158 0
16 158 0
51 158 0
55 158 0
86 158 0
194 158 0
215 158 0
267 158 0
282 158 0
294 158 0
298 158 0
301 158 0
324 158 0
350 158 0
358 158 0
365 158 0
372 158 0
378 158 0
11 157 0
32 157 0
80 157 0
83 157 0
97 157 0
102 157 0
109 157 0
114 157 0
133 157 0
138 157 0
146 157 0
242 157 0
272 157 0
276 157 0
287 157 0
291 157 0
304 157 0
309 157 0
314 157 0
318 157 0
[...]
CELL_DATA 101413
COLOR_SCALARS lut 1
0.129278
0.129278
0.129278
0.129278
0.129278
0.129278
0.129278
0.129278
0.129278
0.129278
0.129278
0.129278
0.129278
0.129278
0.129278
0.129278
0.129278
0.129278
0.129278
0.129278
0.129278
0.129278
0.129278
0.129278
0.129278
0.129278
0.129278
0.129278
0.129278
0.129278
0.129278
0.129278
0.129278
0.129278
0.129278
0.129278
0.129278
0.129278
0.129278
0.129278
0.129278
0.129278
0.129278
0.129278
0.129278
0.134139
0.124748
0.124748
0.124748
0.124748
0.124748
0.124748
0.124748
0.124748
0.124748
0.124748
0.124748
0.124748
0.124748
0.124748
0.124748
0.124748
0.122942
0.122942
0.122942
0.122942
0.122942
0.122942
0.122942
0.122942
0.122942
0.122942
0.122942
0.122942
0.122942
0.122942
0.122942
0.122942
0.122942
0.122942
0.122942
0.122942
0.122942
0.122942
0.122942
0.122942
0.122942
0.122942
0.122942
0.122942
0.122942
0.122942
0.122942
0.122942
0.122942
0.122942
0.122942
0.122942
0.122942
0.122942
0.122942
0.122942
0.124748
0.124748
0.124748
0.124748
0.124748
0.124748
0.124748
0.124748
0.124748
0.124748
0.124748
0.124748
0.124748
0.124748
0.124748
0.124748
0.124748
0.124748
0.124748
0.124748
0.124748
0.124748
0.124748
0.124748
0.124748
0.124748
0.124748
0.124748
0.124748
0.124748
0.129278
0.129278
0.129278
0.129278
0.129278
0.129278
0.129278
0.129278
0.129278
0.129278
0.129278
0.129278
0.129278
0.129278
0.129278
0.129278
0.129278
0.129278
0.129278
0.129278
0.129278
0.129278
0.129278
0.129278
0.129278
0.129278
0.129278
0.129278
0.129278
0.122942
0.135221
0.135221
0.135221
0.135221
0.135221
0.135221
0.135221
0.135221
0.135221
0.135221
0.135221
0.135221
0.135221
0.135221
0.135221
0.135221
0.135221
0.135221
0.135221
0.135221
0.135221
0.135221
0.135221
0.135221
0.135221
0.135221
0.135221
0.135221
0.135221
0.135221
0.135221
0.135221
0.135221
0.129278
0.139179
0.140093
0.140093
0.140093
0.140093
0.140093
0.140093
0.140093
0.140093
0.140093
0.140093
0.140093
0.140093
0.140093
0.140093
0.140093
0.140093
0.140093
0.140093
0.140093
0.140093
0.140093
0.140093
0.140093
0.140093
0.140093
0.140093
0.140093
0.140093
0.140093
0.145885
0.145885
0.145885
0.145885
0.145885
0.145885
0.145885
0.145885
0.145885
0.145885
0.145885
0.145885
0.145885
0.145885
0.145885
0.145885
0.145885
0.145885
0.145885
0.145885
0.145885
0.124748
0.129278
0.150908
0.150908
0.150908
0.150908
0.150908
0.150908
0.150908
0.150908
0.150908
0.150908
0.150908
0.150908
0.150908
0.150908
0.150908
0.150908
0.150908
0.150908
0.150908
0.150908
0.150908
0.150908
0.150908
0.150908
0.150908
0.129278
0.156615
0.156615
0.156615
0.156615
0.156615
0.156615
0.156615
0.156615
0.156615
0.156615
0.156615
0.156615
0.156615
0.156615
0.156615
0.156615
0.156615
0.156615
0.145885
0.145885
0.161723
0.161723
0.161723
0.161723
0.161723
0.161723
0.161723
0.161723
0.161723
0.161723
0.161723
0.161723
0.161723
0.161723
0.161723
0.161723
0.161723
0.161723
0.161723
0.161723
0.161723
0.161723
0.161723
0.124748
0.129278
0.167376
0.167376
0.167376
0.167376
0.167376
0.167376
0.167376
0.167376
0.167376
0.167376
0.167376
0.167376
0.167376
0.167376
0.167376
0.167376
0.167376
0.167376
0.167376
0.124748
0.167376
0.172538
0.172538
0.172538
0.172538
0.172538
0.172538
0.172538
0.172538
0.172538
0.172538
0.172538
0.156615
0.178153
0.178153
0.178153
0.178153
0.178153
0.178153
0.178153
0.178153
0.178153
0.178153
0.178153
0.178153
0.178153
0.178153
0.178153
0.178153
0.178153
0.178153
0.178153
0.183353
0.183353
0.183353
0.183353
0.183353
0.183353
0.183353
0.183353
0.183353
0.183353
0.183353
0.183353
0.183353
0.183353
0.135221
0.124748
0.145885
0.188941
0.188941
0.188941
0.188941
0.188941
0.188941
0.188941
0.188941
0.188941
0.188941
0.188941
0.188941
0.188941
0.129278
0.129278
0.167376
0.194168
0.194168
0.194168
0.194168
0.194168
0.194168
0.194168
0.194168
0.194168
0.194168
0.194168
0.194168
0.194168
0.194168
0.194168
0.194168
0.194168
0.150908
0.124748
0.199735
0.199735
0.199735
0.199735
0.199735
0.199735
0.199735
0.199735
0.199735
0.199735
0.199735
0.199735
0.199735
0.199735
0.199735
0.199735
0.204983
0.204983
0.204983
0.204983
0.204983
0.204983
0.204983
0.204983
0.204983
0.204983
0.204983
0.204983
0.204983
0.188941
0.129278
0.150908
0.210533
0.210533
0.210533
0.210533
0.210533
0.210533
0.210533
0.210533
0.210533
0.167376
0.129278
0.183353
0.215798
0.215798
0.215798
0.215798
0.215798
0.215798
0.215798
0.215798
0.215798
0.215798
0.215798
0.129278
0.129278
0.204983
0.221335
0.221335
0.221335
0.221335
0.221335
0.221335
0.221335
0.221335
0.221335
0.221335
0.150908
0.129278
0.226613
0.226613
0.226613
0.226613
0.226613
0.226613
0.226613
0.194168
0.124748
0.150908
0.232139
0.232139
0.232139
0.232139
0.232139
0.232139
0.232139
0.232139
0.232139
0.232139
0.221335
0.124748
0.188941
0.237429
0.237429
0.237429
0.237429
0.237429
0.237429
0.237429
0.237429
0.237429
0.237429
0.172538
0.124748
0.242944
0.242944
0.242944
0.242944
0.242944
0.242944
0.242944
0.242944
0.242944
0.242944
0.145885
0.129278
0.248244
0.248244
0.248244
0.248244
0.248244
0.248244
0.248244
0.248244
0.248244
0.248244
0.194168
0.129278
0.167376
0.204983
0.253751
0.253751
0.253751
0.253751
0.253751
0.253751
0.253751
0.253751
0.253751
0.253751
0.124748
0.135221
0.232139
0.259059
0.259059
0.259059
0.172538
0.140093
0.124748
0.26456
0.26456
0.26456
0.26456
0.26456
0.26456
0.26456
0.26456
0.237429
0.210533
0.124748
0.188941
0.269874
0.269874
0.269874
0.269874
0.156615
0.124748
0.145885
0.275369
0.275369
0.275369
0.275369
0.275369
0.275369
0.275369
0.275369
0.275369
0.135221
0.124748
0.280689
0.280689
0.280689
0.280689
0.194168
0.172538
0.167376
0.210533
0.286178
0.286178
0.286178
0.286178
0.286178
0.286178
0.286178
0.286178
0.286178
0.124748
0.124748
0.259059
0.291504
0.291504
0.291504
0.291504
0.291504
0.291504
0.248244
0.129278
0.145885
0.296989
0.296989
0.296989
0.296989
0.296989
0.296989
0.140093
0.129278
0.302319
0.302319
0.302319
0.302319
0.302319
0.302319
0.204983
0.161723
0.124748
0.194168
0.286178
0.3078
0.183353
0.313134
0.313134
0.313134
0.313134
0.313134
0.313134
0.313134
0.313134
0.129278
0.122942
0.145885
0.167376
0.248244
0.318611
0.298986
0.124748
0.210533
0.323949
0.323949
0.313134
0.323949
0.280689
0.248244
0.145885
0.129278
0.329423
0.329423
0.311419
0.291504
0.290707
0.293245
0.310701
0.167376
0.140093
0.183353
0.334764
0.194168
0.122942
0.122942
0.299444
0.310701
0.340235
0.340235
0.340235
0.340235
0.340235
0.324084
0.286342
0.275369
0.290227
0.313561
0.221335
0.135221
0.296989
0.298374
0.32677
0.34558
0.156615
0.129278
0.150908
0.325163
0.281027
0.282538
0.351047
0.299139
0.259059
0.122942
0.204983
0.232139
0.307214
0.356395
0.356395
0.183353
0.135221
0.122942
0.172538
0.26456
0.276065
0.36186
0.36186
0.253751
0.259059
0.291504
0.129278
0.135221
0.269874
0.269151
0.226613
0.124748
0.129278
0.150908
0.325431
0.289103
0.317917
0.372672
0.360476
0.255344
0.24316
0.156615
0.215798
0.270593
0.253751
0.259829
0.378025
0.242944
0.248452
0.272733
0.135221
0.129278
0.183353
0.272733
0.248244
0.265859
0.331653
0.27467
0.124748
0.129278
0.156615
0.291981
0.27762
0.38884
0.38884
0.288941
0.256919
0.275369
0.204983
0.172538
0.150908
0.240985
0.394298
0.222359
0.221335
0.246359
0.129278
0.129278
0.232139
0.291504
0.234004
0.276065
0.399254
0.301717
0.234235
0.226859
0.124748
0.194168
0.238327
0.353438
0.221335
0.242944
0.161723
0.135221
0.240985
0.221335
0.41047
0.206178
0.210533
0.223626
0.183353
0.129278
0.156615
0.27882
0.222359
0.221592
0.370234
0.225378
0.199735
0.140093
0.178153
0.253751
0.240985
0.319303
0.356747
0.421285
0.310988
0.232607
0.222359
0.122942
0.129278
0.221335
0.28387
0.237878
0.230483
0.207651
0.204983
0.220041
0.276065
0.26325
0.241204
0.204682
0.199735
0.194505
0.190367
0.20255
0.238773
0.199735
0.161723
0.129278
0.145885
0.243376
0.188941
0.19349
0.220041
0.237429
0.135221
0.210817
0.204983
0.194168
0.199735
0.204682
0.217409
0.245725
0.287646
0.390706
0.369565
0.178153
0.197158
0.24316
0.188941
0.423515
0.325834
0.270952
0.200996
0.150908
0.122942
0.124748
0.140093
0.183353
0.248244
0.25133
0.184883
0.400854
0.204682
0.179793
0.172538
0.167376
0.167863
0.188941
0.161723
0.221335
0.204682
0.183353
0.194505
0.388111
0.234235
0.215256
0.167376
0.167863
0.175188
0.19349
0.129278
0.227593
0.207651
0.194168
0.184883
0.172538
0.179793
0.200052
0.291345
0.291504
0.163322
0.179793
0.214164
0.237878
0.135221
0.122942
0.264186
0.211664
0.256919
0.346561
0.318611
0.174316
0.167863
0.154789
0.150908
0.221335
0.150908
0.178153
0.199735
0.204682
0.17163
0.163322
0.163322
0.173876
0.260978
0.146642
0.153532
0.194505
0.194168
0.167376
0.129278
0.129278
0.253751
0.185636
0.161723
0.177319
0.224631
0.1893
0.179793
0.171172
0.146642
0.141848
0.156615
0.173433
0.211664
0.145885
0.221335
0.225378
0.169303
0.151579
0.156615
0.302469
0.394808
0.20939
0.14883
0.142692
0.124748
0.129278
0.204682
0.169303
0.157208
0.145885
0.156615
0.176474
0.187854
0.199417
0.344841
0.228322
0.135221
0.135221
0.156615
0.171172
0.187489
0.145885
0.194168
0.1893
0.181397
0.140093
0.380072
0.321912
0.183738
0.150908
0.135221
0.129278
0.129278
0.145885
0.207942
0.215798
0.178153
0.140093
0.129278
0.167376
0.236751
0.140982
0.140093
0.140093
0.142692
0.150908
0.158948
0.218205
0.236297
0.265303
0.25315
0.164876
0.156615
0.139179
0.136261
0.124748
0.124748
0.13059
0.133011
0.151579
0.169303
0.129278
0.158948
0.150908
0.143517
0.140093
0.133011
0.333603
0.27882
0.199417
0.13059
0.122942
0.124748
0.145885
0.226613
0.20939
0.186753
0.124748
0.13059
0.161723
0.18601
0.25809
0.139179
0.124748
0.174753
0.167376
0.145885
0.188941
0.154789
0.124748
0.13059
0.140093
0.28387
0.286178
0.129278
0.12638
0.129278
0.122942
0.12638
0.133011
0.142692
0.182577
0.188941
0.124748
0.157208
0.140093
0.13059
0.124748
0.122942
0.122942
0.122942
0.122942
0.232373
0.29637
0.332044
0.174753
0.145112
0.139179
0.129278
0.151579
0.198777
0.129278
0.161723
0.228322
0.13059
0.13059
0.122942
0.12638
0.140982
0.161723
0.191769
0.232607
0.219258
0.204682
0.158948
0.129278
0.13059
0.13059
0.154789
0.213889
0.129278
0.135221
0.199417
0.154789
0.140982
0.133011
0.129278
0.129278
0.12638
0.147385
0.303965
0.143517
0.13059
0.124748
0.124748
0.133011
0.145885
0.188941
0.17163
0.161179
0.12638
0.13059
0.129278
0.165384
0.251126
0.183353
0.169775
0.13059
0.129278
0.12638
0.129278
0.124748
0.124748
0.134139
0.176474
0.167376
0.122942
0.129278
0.150908
0.179387
0.13059
0.122942
0.198777
0.34766
0.303965
0.151579
0.122942
0.13059
0.135221
0.13059
0.140982
0.124748
0.228322
0.200052
0.139179
0.133011
0.129278
0.12638
0.12638
0.124748
0.122942
0.124748
0.135221
0.14883
0.278478
0.236977
0.225378
0.136261
0.12638
0.122942
0.124748
0.140093
0.140093
0.12638
0.14883
0.204983
0.150908
0.179387
0.152239
0.124748
0.124748
0.124748
0.129278
0.122942
0.169775
0.206178
0.332565
0.251126
0.200996
0.12638
0.135221
0.13059
0.154789
0.183738
0.178153
0.135221
0.129278
0.135221
0.129278
0.13059
0.122942
0.124748
0.268243
0.302469
0.186753
0.158948
0.124748
0.129278
0.129278
0.136261
0.136261
0.145885
0.129278
0.122942
0.167376
0.188941
0.157795
0.135221
0.124748
0.124748
0.124748
0.140093
0.122942
0.122942
0.13059
0.139179
0.14883
0.183738
0.248244
0.281027
0.173433
0.143517
0.133011
0.124748
0.129278
0.153532
0.136261
0.124748
0.139179
0.180197
0.143517
0.124748
0.135221
0.136261
0.145112
0.13059
0.233307
0.248244
0.199417
0.12638
0.134139
0.133011
0.136261
0.143517
0.124748
0.129278
0.14883
0.140093
0.124748
0.129278
0.140093
0.215798
0.124748
0.135221
0.13059
0.129278
0.124748
0.134139
0.156615
0.211664
0.204682
0.184503
0.12638
0.12638
0.143517
0.129278
0.124748
0.156615
0.13059
0.154789
0.1893
0.161723
0.187854
0.14883
0.129278
0.13059
0.151579
0.13059
0.142692
0.183738
0.298833
0.290387
0.209677
0.14883
0.136261
0.135221
0.136261
0.143517
0.142692
0.13059
0.124748
0.124748
0.151579
0.135221
0.145885
0.250513
0.153532
0.124748
0.13059
0.124748
0.140982
0.17163
0.157208
0.13059
0.122942
0.157795
0.178153
0.135221
0.129278
0.150908
0.188941
0.153532
0.135221
0.13059
0.124748
0.135221
0.146642
0.158948
0.140982
0.131831
0.12638
0.140982
0.140982
0.124748
0.13059
0.13059
0.16063
0.234466
0.266043
0.260787
0.174316
0.157208
0.124748
0.13059
0.140093
0.145885
0.129278
0.124748
0.13059
0.133011
0.131831
0.124748
0.122942
0.136261
0.185636
0.209677
0.225626
0.207358
0.1893
0.161723
0.139179
0.133011
0.124748
0.135221
0.13059
0.135221
0.15289
0.147385
0.133011
0.166388
0.122942
0.135221
0.167376
0.191769
0.133011
0.13059
0.150908
0.131831
0.13059
0.139179
0.192116
0.235156
0.172987
0.135221
0.13059
0.135221
0.145885
0.124748
0.202857
0.169775
0.14883
0.140093
0.13059
0.129278
0.133011
0.143517
0.140093
0.135221
0.133011
0.139179
0.294345
0.284202
0.135221
0.129278
0.13059
0.140982
0.129278
0.135221
0.183353
0.13059
0.134139
0.139179
0.149534
0.129278
0.150908
0.124748
0.167376
0.172987
0.169303
0.145885
0.131831
0.131831
0.124748
0.139179
0.14883
0.204682
0.157208
0.139179
0.124748
0.124748
0.13059
0.131831
0.124748
0.122942
0.179387
0.12638
0.170244
0.178153
0.122942
0.135221
0.188941
0.135221
0.131831
0.139179
0.13059
0.157795
0.169775
0.184503
0.234235
0.197158
0.179387
0.142692
0.124748
0.13059
0.139179
0.124748
0.17163
0.153532
0.13059
0.135221
0.122942
0.173433
0.145112
0.13059
0.134139
0.163322
0.124748
0.124748
0.133011
0.122942
0.122942
0.13059
0.12638
0.252747
0.205582
0.124748
0.124748
0.124748
0.157208
0.14883
0.122942
0.13059
0.167376
0.184503
0.152239
0.129278
0.12638
0.136261
0.158948
0.13059
0.183738
0.199417
0.239884
0.151579
0.12638
0.13059
0.13059
0.13059
0.124748
0.145112
0.124748
0.167376
0.150908
0.131831
0.181397
0.176474
0.14883
0.131831
0.129278
0.129278
0.124748
0.13059
0.129278
0.12638
0.124748
0.139179
0.20588
0.252747
0.271845
0.220301
0.154789
0.136261
0.136261
0.13059
0.135221
0.197158
0.174753
0.133011
0.135221
0.14883
0.129278
0.124748
0.140093
0.122942
0.131831
0.12638
0.139179
0.129278
0.143517
0.163322
0.169303
0.129278
0.13059
0.129278
0.122942
0.122942
0.129278
0.124748
0.129278
0.13059
0.124748
0.171172
0.152239
0.131831
0.129278
0.156615
0.183353
0.152239
0.131831
0.147385
0.164876
0.197809
0.122942
0.122942
0.14883
0.177319
0.124748
0.12638
0.124748
0.124748
0.12638
0.197158
0.13059
0.167376
0.145885
0.165384
0.139179
0.179793
0.15289
0.122942
0.12638
0.12638
0.139179
0.13059
0.210248
0.195842
0.146642
0.139179
0.13059
0.134139
0.12638
0.198777
0.122942
0.136261
0.124748
0.124748
0.131831
0.146642
0.139179
0.129278
0.13059
0.122942
0.131831
0.124748
0.124748
0.13059
0.124748
0.133011
0.163844
0.174316
0.240546
0.176474
0.14883
0.124748
0.122942
0.124748
0.135221
0.129278
0.145885
0.183738
0.139179
0.122942
0.145885
0.147385
0.136261
0.131831
0.136261
0.169775
0.198777
0.135221
0.124748
0.134139
0.146642
0.179387
0.215256
0.13059
0.13059
0.13059
0.133011
0.124748
0.129278
0.124748
0.172538
0.218733
0.17071
0.146642
0.145885
0.167376
0.131831
0.207358
0.183353
0.161723
0.13059
0.129278
0.141848
0.135221
0.124748
0.129278
0.135221
0.187489
0.197158
0.146642
0.129278
0.124748
0.13059
0.12638
0.13059
0.129278
0.194505
0.158948
0.136261
0.124748
0.161723
0.129278
0.169775
0.1893
0.140093
0.13059
0.12638
0.213889
0.133011
0.124748
0.136261
0.12638
0.122942
0.135221
0.14883
0.134139
0.133011
0.124748
0.122942
0.145885
0.167376
0.151579
0.135221
0.16063
0.122942
0.12638
0.135221
0.145885
0.13059
0.129278
0.135221
0.14883
0.217409
0.240546
0.158948
0.146642
0.133011
0.145112
0.140093
0.12638
0.167376
0.209963
0.129278
0.124748
0.12638
0.135221
0.211664
0.12638
0.147385
0.13059
0.129278
0.136261
0.154789
0.232607
0.167376
0.134139
0.13059
0.131831
0.13059
0.129278
0.124748
0.192461
0.16063
0.133011
0.136261
0.161179
0.140093
0.178153
0.134139
0.12638
0.14883
0.194505
0.181792
0.139179
0.134139
0.124748
0.12638
0.163844
0.174753
0.124748
0.12638
0.131831
0.136261
0.129278
0.12638
0.142692
0.12638
0.140982
0.194168
0.217409
0.129278
0.122942
0.145885
0.179387
0.200052
0.131831
0.129278
0.152239
0.14883
0.13059
0.124748
0.124748
0.124748
0.124748
0.135221
0.180197
0.204983
0.186753
0.129278
0.124748
0.150908
0.129278
0.124748
0.139179
0.129278
0.129278
0.152239
0.124748
0.145112
0.129278
0.140093
0.12638
0.139179
0.129278
0.124748
0.167863
0.124748
0.124748
0.124748
0.129278
0.195176
0.14883
0.131831
0.13059
0.124748
0.15289
0.124748
0.157208
0.140093
0.129278
0.129278
0.152239
0.122942
0.161723
0.140093
0.124748
0.157795
0.220819
0.152239
0.135221
0.129278
0.135221
0.140982
0.15289
0.129278
0.129278
0.136261
0.124748
0.23855
0.214164
0.179387
0.151579
0.140093
0.169775
0.135221
0.174753
0.183353
0.129278
0.12638
0.129278
0.135221
0.152239
0.129278
0.13059
0.129278
0.12638
0.136261
0.143517
0.13059
0.145885
0.124748
0.135221
0.124748
0.124748
0.129278
0.135221
0.199735
0.129278
0.124748
0.135221
0.161723
0.220301
0.232139
0.129278
0.124748
0.147385
0.133011
0.129278
0.129278
0.129278
0.173433
0.198777
0.200996
0.180197
0.161723
0.135221
0.13059
0.124748
0.140093
0.161723
0.143517
0.12638
0.129278
0.150908
0.14883
0.136261
0.133011
0.20588
0.145885
0.150908
0.12638
0.124748
0.12638
0.124748
0.134139
0.14883
0.136261
0.124748
0.129278
0.135221
0.133011
0.12638
0.13059
0.156615
0.181792
0.12638
0.13059
0.145885
0.124748
0.124748
0.122942
0.129278
0.124748
0.122942
0.122942
0.140982
0.135221
0.122942
0.140982
0.152239
0.210533
0.145885
0.12638
0.169303
0.140982
0.12638
0.129278
0.135221
0.12638
0.131831
0.196831
0.13059
0.140982
0.12638
0.13059
0.151579
0.183353
0.13059
0.13059
0.136261
0.135221
0.129278
0.124748
0.134139
0.124748
0.198777
0.122942
0.134139
0.14883
0.129278
0.124748
0.129278
0.210533
0.235613
0.157795
0.129278
0.124748
0.156615
0.179387
0.202857
0.204983
0.145885
0.13059
0.135221
0.13059
0.124748
0.133011
0.176474
0.145112
0.136261
0.12638
0.136261
0.146642
0.158948
0.124748
0.138237
0.129278
0.12638
0.124748
0.129278
0.135221
0.140982
0.13059
0.124748
0.124748
0.124748
0.143517
0.13059
0.139179
0.182966
0.133011
0.129278
0.124748
0.129278
0.13059
0.145885
0.179793
0.14883
0.140093
0.140093
0.153532
0.152239
0.173876
0.230245
0.232139
0.12638
0.12638
0.13059
0.124748
0.124748
0.124748
0.13059
0.124748
0.139179
0.133011
0.12638
0.145112
0.154789
0.131831
0.13059
0.140982
0.179387
0.13059
0.124748
0.131831
0.129278
0.124748
0.167376
0.242944
0.139179
0.124748
0.122942
0.124748
0.136261
0.201931
0.253951
0.163322
0.124748
0.122942
0.129278
0.158948
0.146642
0.12638
0.13059
0.13059
0.183738
0.136261
0.157795
0.166388
0.15289
0.129278
0.140982
0.122942
0.129278
0.124748
0.199735
0.23607
0.209963
0.129278
0.129278
0.124748
0.135221
0.124748
0.140982
0.122942
0.129278
0.14883
0.165384
0.195842
0.13059
0.12638
0.136261
0.174316
0.135221
0.122942
0.135221
0.122942
0.150908
0.133011
0.13059
0.156615
0.12638
0.124748
0.13059
0.122942
0.136261
0.135221
0.13059
0.14883
0.143517
0.135221
0.122942
0.13059
0.18601
0.165384
0.196173
0.129278
0.122942
0.131831
0.12638
0.139179
0.151579
0.161723
0.136261
0.136261
0.13059
0.151579
0.13059
0.13059
0.150908
0.174316
0.143517
0.12638
0.12638
0.139179
0.129278
0.135221
0.135221
0.12638
0.147385
0.174753
0.2472
0.238773
0.178567
0.157208
0.122942
0.129278
0.158948
0.13059
0.139179
0.13059
0.139179
0.13059
0.147385
0.194505
0.124748
0.122942
0.13059
0.129278
0.133011
0.122942
0.13059
0.129278
0.122942
0.146642
0.122942
0.226613
0.218205
0.14883
0.129278
0.13059
0.124748
0.13059
0.176474
0.147385
0.166388
0.13059
0.12638
0.140982
0.169303
0.1893
0.208234
0.17163
0.136261
0.13059
0.251736
0.253951
0.210248
0.124748
0.124748
0.166388
0.198777
0.248866
0.136261
0.122942
0.13059
0.129278
0.129278
0.134139
0.129278
0.146642
0.133011
0.139179
0.13059
0.14883
0.161723
0.143517
0.183353
0.151579
0.134139
0.135221
0.129278
0.140982
0.173433
0.195842
0.232373
0.1893
0.157208
0.124748
0.129278
0.147385
0.124748
0.131831
0.124748
0.175188
0.167376
0.129278
0.139179
0.135221
0.13059
0.13059
0.13059
0.124748
0.129278
0.135221
0.129278
0.129278
0.124748
0.140093
0.143517
0.124748
0.203774
0.182577
0.163844
0.136261
0.139179
0.136261
0.13059
0.169775
0.133011
0.147385
0.166388
0.198133
0.13059
0.12638
0.136261
0.161723
0.235613
0.124748
0.12638
0.139179
0.244662